<?xml version="1.0"?><VTKFile type="PolyData" version="0.1" byte_order="LittleEndian"><PolyData>
<Piece NumberOfPoints="6" NumberOfVerts="0" NumberOfLines="0" NumberOfStrips="0" NumberOfPolys="1"><Points><DataArray type="Float32" NumberOfComponents="3" format="ascii">0.562504 0.258391 0 0.624022 0.250449 0 0.640343 0.234095 0 0.670829 0.184346 0 0.53672 0.136252 0 0.510196 0.25866 0 </DataArray></Points><PointData><DataArray type="Float32" Name="Velocity" NumberOfComponents="2" format="ascii">0 0 0 0 0 0 0 0 0 0 0 0 </DataArray></PointData><CellData><DataArray type="Int32" Name="ID" format="ascii">0 </DataArray><DataArray type="Float32" Name="Density" format="ascii">2500 </DataArray><DataArray type="Float32" Name="Elastic_Modulus" format="ascii">1e+10 </DataArray><DataArray type="Float32" Name="Poisson_Ratio" format="ascii">0.25 </DataArray><DataArray type="Float32" Name="Cohesion" format="ascii">1e+06 </DataArray><DataArray type="Float32" Name="Friction_Angle" format="ascii">45 </DataArray><DataArray type="Float32" Name="Stress" NumberOfComponents="3" format="ascii">0 0 0 </DataArray><DataArray type="Float32" Name="Strain" NumberOfComponents="3" format="ascii">0 0 0 </DataArray></CellData><Polys><DataArray type="Int32" Name="connectivity" format="ascii">0 1 2 3 4 5 </DataArray><DataArray type="Int32" Name="offsets" format="ascii">6</DataArray></Polys></Piece>
<Piece NumberOfPoints="4" NumberOfVerts="0" NumberOfLines="0" NumberOfStrips="0" NumberOfPolys="1"><Points><DataArray type="Float32" NumberOfComponents="3" format="ascii">0.927439 0.388968 0 1 0.379474 0 1 0.197891 0 0.93472 0.256446 0 </DataArray></Points><PointData><DataArray type="Float32" Name="Velocity" NumberOfComponents="2" format="ascii">0 0 0 0 0 0 0 0 </DataArray></PointData><CellData><DataArray type="Int32" Name="ID" format="ascii">1 </DataArray><DataArray type="Float32" Name="Density" format="ascii">2500 </DataArray><DataArray type="Float32" Name="Elastic_Modulus" format="ascii">1e+10 </DataArray><DataArray type="Float32" Name="Poisson_Ratio" format="ascii">0.25 </DataArray><DataArray type="Float32" Name="Cohesion" format="ascii">1e+06 </DataArray><DataArray type="Float32" Name="Friction_Angle" format="ascii">45 </DataArray><DataArray type="Float32" Name="Stress" NumberOfComponents="3" format="ascii">0 0 0 </DataArray><DataArray type="Float32" Name="Strain" NumberOfComponents="3" format="ascii">0 0 0 </DataArray></CellData><Polys><DataArray type="Int32" Name="connectivity" format="ascii">0 1 2 3 </DataArray><DataArray type="Int32" Name="offsets" format="ascii">4</DataArray></Polys></Piece>
<Piece NumberOfPoints="6" NumberOfVerts="0" NumberOfLines="0" NumberOfStrips="0" NumberOfPolys="1"><Points><DataArray type="Float32" NumberOfComponents="3" format="ascii">0 0 0 -0 0.160724 0 0.0390557 0.172662 0 0.0799347 0.158004 0 0.104345 0.103014 0 0.0154572 -0 0 </DataArray></Points><PointData><DataArray type="Float32" Name="Velocity" NumberOfComponents="2" format="ascii">0 0 0 0 0 0 0 0 0 0 0 0 </DataArray></PointData><CellData><DataArray type="Int32" Name="ID" format="ascii">2 </DataArray><DataArray type="Float32" Name="Density" format="ascii">2500 </DataArray><DataArray type="Float32" Name="Elastic_Modulus" format="ascii">1e+10 </DataArray><DataArray type="Float32" Name="Poisson_Ratio" format="ascii">0.25 </DataArray><DataArray type="Float32" Name="Cohesion" format="ascii">1e+06 </DataArray><DataArray type="Float32" Name="Friction_Angle" format="ascii">45 </DataArray><DataArray type="Float32" Name="Stress" NumberOfComponents="3" format="ascii">0 0 0 </DataArray><DataArray type="Float32" Name="Strain" NumberOfComponents="3" format="ascii">0 0 0 </DataArray></CellData><Polys><DataArray type="Int32" Name="connectivity" format="ascii">0 1 2 3 4 5 </DataArray><DataArray type="Int32" Name="offsets" format="ascii">6</DataArray></Polys></Piece>
<Piece NumberOfPoints="5" NumberOfVerts="0" NumberOfLines="0" NumberOfStrips="0" NumberOfPolys="1"><Points><DataArray type="Float32" NumberOfComponents="3" format="ascii">0.432631 0.449287 0 0.450748 0.298371 0 0.429034 0.310679 0 0.332401 0.420972 0 0.384806 0.46344 0 </DataArray></Points><PointData><DataArray type="Float32" Name="Velocity" NumberOfComponents="2" format="ascii">0 0 0 0 0 0 0 0 0 0 </DataArray></PointData><CellData><DataArray type="Int32" Name="ID" format="ascii">3 </DataArray><DataArray type="Float32" Name="Density" format="ascii">2500 </DataArray><DataArray type="Float32" Name="Elastic_Modulus" format="ascii">1e+10 </DataArray><DataArray type="Float32" Name="Poisson_Ratio" format="ascii">0.25 </DataArray><DataArray type="Float32" Name="Cohesion" format="ascii">1e+06 </DataArray><DataArray type="Float32" Name="Friction_Angle" format="ascii">45 </DataArray><DataArray type="Float32" Name="Stress" NumberOfComponents="3" format="ascii">0 0 0 </DataArray><DataArray type="Float32" Name="Strain" NumberOfComponents="3" format="ascii">0 0 0 </DataArray></CellData><Polys><DataArray type="Int32" Name="connectivity" format="ascii">0 1 2 3 4 </DataArray><DataArray type="Int32" Name="offsets" format="ascii">5</DataArray></Polys></Piece>
<Piece NumberOfPoints="9" NumberOfVerts="0" NumberOfLines="0" NumberOfStrips="0" NumberOfPolys="1"><Points><DataArray type="Float32" NumberOfComponents="3" format="ascii">0.154799 0.782404 0 0.248176 0.803292 0 0.309702 0.800572 0 0.309853 0.679864 0 0.183332 0.643699 0 0.145797 0.650293 0 0.135779 0.653118 0 0.116603 0.674818 0 0.116516 0.67521 0 </DataArray></Points><PointData><DataArray type="Float32" Name="Velocity" NumberOfComponents="2" format="ascii">0 0 0 0 0 0 0 0 0 0 0 0 0 0 0 0 0 0 </DataArray></PointData><CellData><DataArray type="Int32" Name="ID" format="ascii">4 </DataArray><DataArray type="Float32" Name="Density" format="ascii">2500 </DataArray><DataArray type="Float32" Name="Elastic_Modulus" format="ascii">1e+10 </DataArray><DataArray type="Float32" Name="Poisson_Ratio" format="ascii">0.25 </DataArray><DataArray type="Float32" Name="Cohesion" format="ascii">1e+06 </DataArray><DataArray type="Float32" Name="Friction_Angle" format="ascii">45 </DataArray><DataArray type="Float32" Name="Stress" NumberOfComponents="3" format="ascii">0 0 0 </DataArray><DataArray type="Float32" Name="Strain" NumberOfComponents="3" format="ascii">0 0 0 </DataArray></CellData><Polys><DataArray type="Int32" Name="connectivity" format="ascii">0 1 2 3 4 5 6 7 8 </DataArray><DataArray type="Int32" Name="offsets" format="ascii">9</DataArray></Polys></Piece>
<Piece NumberOfPoints="7" NumberOfVerts="0" NumberOfLines="0" NumberOfStrips="0" NumberOfPolys="1"><Points><DataArray type="Float32" NumberOfComponents="3" format="ascii">0.05304 0.269142 0 -0 0.279597 0 -0 0.41378 0 0.0620135 0.397223 0 0.103269 0.368564 0 0.104095 0.304878 0 0.0899038 0.280192 0 </DataArray></Points><PointData><DataArray type="Float32" Name="Velocity" NumberOfComponents="2" format="ascii">0 0 0 0 0 0 0 0 0 0 0 0 0 0 </DataArray></PointData><CellData><DataArray type="Int32" Name="ID" format="ascii">5 </DataArray><DataArray type="Float32" Name="Density" format="ascii">2500 </DataArray><DataArray type="Float32" Name="Elastic_Modulus" format="ascii">1e+10 </DataArray><DataArray type="Float32" Name="Poisson_Ratio" format="ascii">0.25 </DataArray><DataArray type="Float32" Name="Cohesion" format="ascii">1e+06 </DataArray><DataArray type="Float32" Name="Friction_Angle" format="ascii">45 </DataArray><DataArray type="Float32" Name="Stress" NumberOfComponents="3" format="ascii">0 0 0 </DataArray><DataArray type="Float32" Name="Strain" NumberOfComponents="3" format="ascii">0 0 0 </DataArray></CellData><Polys><DataArray type="Int32" Name="connectivity" format="ascii">0 1 2 3 4 5 6 </DataArray><DataArray type="Int32" Name="offsets" format="ascii">7</DataArray></Polys></Piece>
<Piece NumberOfPoints="5" NumberOfVerts="0" NumberOfLines="0" NumberOfStrips="0" NumberOfPolys="1"><Points><DataArray type="Float32" NumberOfComponents="3" format="ascii">0.507619 0.825143 0 0.606917 0.853751 0 0.631861 0.742442 0 0.489965 0.780871 0 0.482137 0.799113 0 </DataArray></Points><PointData><DataArray type="Float32" Name="Velocity" NumberOfComponents="2" format="ascii">0 0 0 0 0 0 0 0 0 0 </DataArray></PointData><CellData><DataArray type="Int32" Name="ID" format="ascii">6 </DataArray><DataArray type="Float32" Name="Density" format="ascii">2500 </DataArray><DataArray type="Float32" Name="Elastic_Modulus" format="ascii">1e+10 </DataArray><DataArray type="Float32" Name="Poisson_Ratio" format="ascii">0.25 </DataArray><DataArray type="Float32" Name="Cohesion" format="ascii">1e+06 </DataArray><DataArray type="Float32" Name="Friction_Angle" format="ascii">45 </DataArray><DataArray type="Float32" Name="Stress" NumberOfComponents="3" format="ascii">0 0 0 </DataArray><DataArray type="Float32" Name="Strain" NumberOfComponents="3" format="ascii">0 0 0 </DataArray></CellData><Polys><DataArray type="Int32" Name="connectivity" format="ascii">0 1 2 3 4 </DataArray><DataArray type="Int32" Name="offsets" format="ascii">5</DataArray></Polys></Piece>
<Piece NumberOfPoints="5" NumberOfVerts="0" NumberOfLines="0" NumberOfStrips="0" NumberOfPolys="1"><Points><DataArray type="Float32" NumberOfComponents="3" format="ascii">1 0 0 0.850128 -0 0 0.845952 0.0675488 0 0.854259 0.0907866 0 1 0.178725 0 </DataArray></Points><PointData><DataArray type="Float32" Name="Velocity" NumberOfComponents="2" format="ascii">0 0 0 0 0 0 0 0 0 0 </DataArray></PointData><CellData><DataArray type="Int32" Name="ID" format="ascii">7 </DataArray><DataArray type="Float32" Name="Density" format="ascii">2500 </DataArray><DataArray type="Float32" Name="Elastic_Modulus" format="ascii">1e+10 </DataArray><DataArray type="Float32" Name="Poisson_Ratio" format="ascii">0.25 </DataArray><DataArray type="Float32" Name="Cohesion" format="ascii">1e+06 </DataArray><DataArray type="Float32" Name="Friction_Angle" format="ascii">45 </DataArray><DataArray type="Float32" Name="Stress" NumberOfComponents="3" format="ascii">0 0 0 </DataArray><DataArray type="Float32" Name="Strain" NumberOfComponents="3" format="ascii">0 0 0 </DataArray></CellData><Polys><DataArray type="Int32" Name="connectivity" format="ascii">0 1 2 3 4 </DataArray><DataArray type="Int32" Name="offsets" format="ascii">5</DataArray></Polys></Piece>
<Piece NumberOfPoints="5" NumberOfVerts="0" NumberOfLines="0" NumberOfStrips="0" NumberOfPolys="1"><Points><DataArray type="Float32" NumberOfComponents="3" format="ascii">0.650095 0.290384 0 0.619414 0.320953 0 0.619066 0.328867 0 0.647935 0.361441 0 0.690051 0.325003 0 </DataArray></Points><PointData><DataArray type="Float32" Name="Velocity" NumberOfComponents="2" format="ascii">0 0 0 0 0 0 0 0 0 0 </DataArray></PointData><CellData><DataArray type="Int32" Name="ID" format="ascii">8 </DataArray><DataArray type="Float32" Name="Density" format="ascii">2500 </DataArray><DataArray type="Float32" Name="Elastic_Modulus" format="ascii">1e+10 </DataArray><DataArray type="Float32" Name="Poisson_Ratio" format="ascii">0.25 </DataArray><DataArray type="Float32" Name="Cohesion" format="ascii">1e+06 </DataArray><DataArray type="Float32" Name="Friction_Angle" format="ascii">45 </DataArray><DataArray type="Float32" Name="Stress" NumberOfComponents="3" format="ascii">0 0 0 </DataArray><DataArray type="Float32" Name="Strain" NumberOfComponents="3" format="ascii">0 0 0 </DataArray></CellData><Polys><DataArray type="Int32" Name="connectivity" format="ascii">0 1 2 3 4 </DataArray><DataArray type="Int32" Name="offsets" format="ascii">5</DataArray></Polys></Piece>
<Piece NumberOfPoints="5" NumberOfVerts="0" NumberOfLines="0" NumberOfStrips="0" NumberOfPolys="1"><Points><DataArray type="Float32" NumberOfComponents="3" format="ascii">0.240429 0.924881 0 0.184614 0.966267 0 0.184754 0.970517 0 0.358843 0.945705 0 0.352282 0.902729 0 </DataArray></Points><PointData><DataArray type="Float32" Name="Velocity" NumberOfComponents="2" format="ascii">0 0 0 0 0 0 0 0 0 0 </DataArray></PointData><CellData><DataArray type="Int32" Name="ID" format="ascii">9 </DataArray><DataArray type="Float32" Name="Density" format="ascii">2500 </DataArray><DataArray type="Float32" Name="Elastic_Modulus" format="ascii">1e+10 </DataArray><DataArray type="Float32" Name="Poisson_Ratio" format="ascii">0.25 </DataArray><DataArray type="Float32" Name="Cohesion" format="ascii">1e+06 </DataArray><DataArray type="Float32" Name="Friction_Angle" format="ascii">45 </DataArray><DataArray type="Float32" Name="Stress" NumberOfComponents="3" format="ascii">0 0 0 </DataArray><DataArray type="Float32" Name="Strain" NumberOfComponents="3" format="ascii">0 0 0 </DataArray></CellData><Polys><DataArray type="Int32" Name="connectivity" format="ascii">0 1 2 3 4 </DataArray><DataArray type="Int32" Name="offsets" format="ascii">5</DataArray></Polys></Piece>
<Piece NumberOfPoints="9" NumberOfVerts="0" NumberOfLines="0" NumberOfStrips="0" NumberOfPolys="1"><Points><DataArray type="Float32" NumberOfComponents="3" format="ascii">0.482137 0.799113 0 0.489965 0.780871 0 0.489938 0.757093 0 0.480938 0.719393 0 0.331785 0.650554 0 0.32912 0.651976 0 0.309853 0.679864 0 0.309702 0.800572 0 0.356969 0.844833 0 </DataArray></Points><PointData><DataArray type="Float32" Name="Velocity" NumberOfComponents="2" format="ascii">0 0 0 0 0 0 0 0 0 0 0 0 0 0 0 0 0 0 </DataArray></PointData><CellData><DataArray type="Int32" Name="ID" format="ascii">10 </DataArray><DataArray type="Float32" Name="Density" format="ascii">2500 </DataArray><DataArray type="Float32" Name="Elastic_Modulus" format="ascii">1e+10 </DataArray><DataArray type="Float32" Name="Poisson_Ratio" format="ascii">0.25 </DataArray><DataArray type="Float32" Name="Cohesion" format="ascii">1e+06 </DataArray><DataArray type="Float32" Name="Friction_Angle" format="ascii">45 </DataArray><DataArray type="Float32" Name="Stress" NumberOfComponents="3" format="ascii">0 0 0 </DataArray><DataArray type="Float32" Name="Strain" NumberOfComponents="3" format="ascii">0 0 0 </DataArray></CellData><Polys><DataArray type="Int32" Name="connectivity" format="ascii">0 1 2 3 4 5 6 7 8 </DataArray><DataArray type="Int32" Name="offsets" format="ascii">9</DataArray></Polys></Piece>
<Piece NumberOfPoints="7" NumberOfVerts="0" NumberOfLines="0" NumberOfStrips="0" NumberOfPolys="1"><Points><DataArray type="Float32" NumberOfComponents="3" format="ascii">0.352837 0.630062 0 0.37644 0.554031 0 0.27201 0.525128 0 0.264825 0.532188 0 0.263986 0.550254 0 0.32912 0.651976 0 0.331785 0.650554 0 </DataArray></Points><PointData><DataArray type="Float32" Name="Velocity" NumberOfComponents="2" format="ascii">0 0 0 0 0 0 0 0 0 0 0 0 0 0 </DataArray></PointData><CellData><DataArray type="Int32" Name="ID" format="ascii">11 </DataArray><DataArray type="Float32" Name="Density" format="ascii">2500 </DataArray><DataArray type="Float32" Name="Elastic_Modulus" format="ascii">1e+10 </DataArray><DataArray type="Float32" Name="Poisson_Ratio" format="ascii">0.25 </DataArray><DataArray type="Float32" Name="Cohesion" format="ascii">1e+06 </DataArray><DataArray type="Float32" Name="Friction_Angle" format="ascii">45 </DataArray><DataArray type="Float32" Name="Stress" NumberOfComponents="3" format="ascii">0 0 0 </DataArray><DataArray type="Float32" Name="Strain" NumberOfComponents="3" format="ascii">0 0 0 </DataArray></CellData><Polys><DataArray type="Int32" Name="connectivity" format="ascii">0 1 2 3 4 5 6 </DataArray><DataArray type="Int32" Name="offsets" format="ascii">7</DataArray></Polys></Piece>
<Piece NumberOfPoints="4" NumberOfVerts="0" NumberOfLines="0" NumberOfStrips="0" NumberOfPolys="1"><Points><DataArray type="Float32" NumberOfComponents="3" format="ascii">0.223478 0.582743 0 0.190223 0.552176 0 0.145797 0.650293 0 0.183332 0.643699 0 </DataArray></Points><PointData><DataArray type="Float32" Name="Velocity" NumberOfComponents="2" format="ascii">0 0 0 0 0 0 0 0 </DataArray></PointData><CellData><DataArray type="Int32" Name="ID" format="ascii">12 </DataArray><DataArray type="Float32" Name="Density" format="ascii">2500 </DataArray><DataArray type="Float32" Name="Elastic_Modulus" format="ascii">1e+10 </DataArray><DataArray type="Float32" Name="Poisson_Ratio" format="ascii">0.25 </DataArray><DataArray type="Float32" Name="Cohesion" format="ascii">1e+06 </DataArray><DataArray type="Float32" Name="Friction_Angle" format="ascii">45 </DataArray><DataArray type="Float32" Name="Stress" NumberOfComponents="3" format="ascii">0 0 0 </DataArray><DataArray type="Float32" Name="Strain" NumberOfComponents="3" format="ascii">0 0 0 </DataArray></CellData><Polys><DataArray type="Int32" Name="connectivity" format="ascii">0 1 2 3 </DataArray><DataArray type="Int32" Name="offsets" format="ascii">4</DataArray></Polys></Piece>
<Piece NumberOfPoints="7" NumberOfVerts="0" NumberOfLines="0" NumberOfStrips="0" NumberOfPolys="1"><Points><DataArray type="Float32" NumberOfComponents="3" format="ascii">0.358843 0.945705 0 0.359723 0.949707 0 0.531824 0.943719 0 0.507619 0.825143 0 0.482137 0.799113 0 0.356969 0.844833 0 0.352282 0.902729 0 </DataArray></Points><PointData><DataArray type="Float32" Name="Velocity" NumberOfComponents="2" format="ascii">0 0 0 0 0 0 0 0 0 0 0 0 0 0 </DataArray></PointData><CellData><DataArray type="Int32" Name="ID" format="ascii">13 </DataArray><DataArray type="Float32" Name="Density" format="ascii">2500 </DataArray><DataArray type="Float32" Name="Elastic_Modulus" format="ascii">1e+10 </DataArray><DataArray type="Float32" Name="Poisson_Ratio" format="ascii">0.25 </DataArray><DataArray type="Float32" Name="Cohesion" format="ascii">1e+06 </DataArray><DataArray type="Float32" Name="Friction_Angle" format="ascii">45 </DataArray><DataArray type="Float32" Name="Stress" NumberOfComponents="3" format="ascii">0 0 0 </DataArray><DataArray type="Float32" Name="Strain" NumberOfComponents="3" format="ascii">0 0 0 </DataArray></CellData><Polys><DataArray type="Int32" Name="connectivity" format="ascii">0 1 2 3 4 5 6 </DataArray><DataArray type="Int32" Name="offsets" format="ascii">7</DataArray></Polys></Piece>
<Piece NumberOfPoints="5" NumberOfVerts="0" NumberOfLines="0" NumberOfStrips="0" NumberOfPolys="1"><Points><DataArray type="Float32" NumberOfComponents="3" format="ascii">0.0121681 0.889564 0 -0 0.885278 0 0 1 0 0.0634658 1 0 0.0709668 0.964379 0 </DataArray></Points><PointData><DataArray type="Float32" Name="Velocity" NumberOfComponents="2" format="ascii">0 0 0 0 0 0 0 0 0 0 </DataArray></PointData><CellData><DataArray type="Int32" Name="ID" format="ascii">14 </DataArray><DataArray type="Float32" Name="Density" format="ascii">2500 </DataArray><DataArray type="Float32" Name="Elastic_Modulus" format="ascii">1e+10 </DataArray><DataArray type="Float32" Name="Poisson_Ratio" format="ascii">0.25 </DataArray><DataArray type="Float32" Name="Cohesion" format="ascii">1e+06 </DataArray><DataArray type="Float32" Name="Friction_Angle" format="ascii">45 </DataArray><DataArray type="Float32" Name="Stress" NumberOfComponents="3" format="ascii">0 0 0 </DataArray><DataArray type="Float32" Name="Strain" NumberOfComponents="3" format="ascii">0 0 0 </DataArray></CellData><Polys><DataArray type="Int32" Name="connectivity" format="ascii">0 1 2 3 4 </DataArray><DataArray type="Int32" Name="offsets" format="ascii">5</DataArray></Polys></Piece>
<Piece NumberOfPoints="6" NumberOfVerts="0" NumberOfLines="0" NumberOfStrips="0" NumberOfPolys="1"><Points><DataArray type="Float32" NumberOfComponents="3" format="ascii">0.259892 0.273901 0 0.429034 0.310679 0 0.450748 0.298371 0 0.474523 0.282086 0 0.357132 0.171982 0 0.339564 0.177754 0 </DataArray></Points><PointData><DataArray type="Float32" Name="Velocity" NumberOfComponents="2" format="ascii">0 0 0 0 0 0 0 0 0 0 0 0 </DataArray></PointData><CellData><DataArray type="Int32" Name="ID" format="ascii">15 </DataArray><DataArray type="Float32" Name="Density" format="ascii">2500 </DataArray><DataArray type="Float32" Name="Elastic_Modulus" format="ascii">1e+10 </DataArray><DataArray type="Float32" Name="Poisson_Ratio" format="ascii">0.25 </DataArray><DataArray type="Float32" Name="Cohesion" format="ascii">1e+06 </DataArray><DataArray type="Float32" Name="Friction_Angle" format="ascii">45 </DataArray><DataArray type="Float32" Name="Stress" NumberOfComponents="3" format="ascii">0 0 0 </DataArray><DataArray type="Float32" Name="Strain" NumberOfComponents="3" format="ascii">0 0 0 </DataArray></CellData><Polys><DataArray type="Int32" Name="connectivity" format="ascii">0 1 2 3 4 5 </DataArray><DataArray type="Int32" Name="offsets" format="ascii">6</DataArray></Polys></Piece>
<Piece NumberOfPoints="7" NumberOfVerts="0" NumberOfLines="0" NumberOfStrips="0" NumberOfPolys="1"><Points><DataArray type="Float32" NumberOfComponents="3" format="ascii">0.49321 0.295152 0 0.540918 0.341908 0 0.619066 0.328867 0 0.619414 0.320953 0 0.562504 0.258391 0 0.510196 0.25866 0 0.486587 0.282198 0 </DataArray></Points><PointData><DataArray type="Float32" Name="Velocity" NumberOfComponents="2" format="ascii">0 0 0 0 0 0 0 0 0 0 0 0 0 0 </DataArray></PointData><CellData><DataArray type="Int32" Name="ID" format="ascii">16 </DataArray><DataArray type="Float32" Name="Density" format="ascii">2500 </DataArray><DataArray type="Float32" Name="Elastic_Modulus" format="ascii">1e+10 </DataArray><DataArray type="Float32" Name="Poisson_Ratio" format="ascii">0.25 </DataArray><DataArray type="Float32" Name="Cohesion" format="ascii">1e+06 </DataArray><DataArray type="Float32" Name="Friction_Angle" format="ascii">45 </DataArray><DataArray type="Float32" Name="Stress" NumberOfComponents="3" format="ascii">0 0 0 </DataArray><DataArray type="Float32" Name="Strain" NumberOfComponents="3" format="ascii">0 0 0 </DataArray></CellData><Polys><DataArray type="Int32" Name="connectivity" format="ascii">0 1 2 3 4 5 6 </DataArray><DataArray type="Int32" Name="offsets" format="ascii">7</DataArray></Polys></Piece>
<Piece NumberOfPoints="5" NumberOfVerts="0" NumberOfLines="0" NumberOfStrips="0" NumberOfPolys="1"><Points><DataArray type="Float32" NumberOfComponents="3" format="ascii">0.100043 0.464968 0 0.100781 0.465041 0 0.166304 0.400289 0 0.103269 0.368564 0 0.0620135 0.397223 0 </DataArray></Points><PointData><DataArray type="Float32" Name="Velocity" NumberOfComponents="2" format="ascii">0 0 0 0 0 0 0 0 0 0 </DataArray></PointData><CellData><DataArray type="Int32" Name="ID" format="ascii">17 </DataArray><DataArray type="Float32" Name="Density" format="ascii">2500 </DataArray><DataArray type="Float32" Name="Elastic_Modulus" format="ascii">1e+10 </DataArray><DataArray type="Float32" Name="Poisson_Ratio" format="ascii">0.25 </DataArray><DataArray type="Float32" Name="Cohesion" format="ascii">1e+06 </DataArray><DataArray type="Float32" Name="Friction_Angle" format="ascii">45 </DataArray><DataArray type="Float32" Name="Stress" NumberOfComponents="3" format="ascii">0 0 0 </DataArray><DataArray type="Float32" Name="Strain" NumberOfComponents="3" format="ascii">0 0 0 </DataArray></CellData><Polys><DataArray type="Int32" Name="connectivity" format="ascii">0 1 2 3 4 </DataArray><DataArray type="Int32" Name="offsets" format="ascii">5</DataArray></Polys></Piece>
<Piece NumberOfPoints="7" NumberOfVerts="0" NumberOfLines="0" NumberOfStrips="0" NumberOfPolys="1"><Points><DataArray type="Float32" NumberOfComponents="3" format="ascii">0.695762 0.53758 0 0.719383 0.495657 0 0.596375 0.409265 0 0.591567 0.411135 0 0.582198 0.439893 0 0.619498 0.561924 0 0.654013 0.568728 0 </DataArray></Points><PointData><DataArray type="Float32" Name="Velocity" NumberOfComponents="2" format="ascii">0 0 0 0 0 0 0 0 0 0 0 0 0 0 </DataArray></PointData><CellData><DataArray type="Int32" Name="ID" format="ascii">18 </DataArray><DataArray type="Float32" Name="Density" format="ascii">2500 </DataArray><DataArray type="Float32" Name="Elastic_Modulus" format="ascii">1e+10 </DataArray><DataArray type="Float32" Name="Poisson_Ratio" format="ascii">0.25 </DataArray><DataArray type="Float32" Name="Cohesion" format="ascii">1e+06 </DataArray><DataArray type="Float32" Name="Friction_Angle" format="ascii">45 </DataArray><DataArray type="Float32" Name="Stress" NumberOfComponents="3" format="ascii">0 0 0 </DataArray><DataArray type="Float32" Name="Strain" NumberOfComponents="3" format="ascii">0 0 0 </DataArray></CellData><Polys><DataArray type="Int32" Name="connectivity" format="ascii">0 1 2 3 4 5 6 </DataArray><DataArray type="Int32" Name="offsets" format="ascii">7</DataArray></Polys></Piece>
<Piece NumberOfPoints="8" NumberOfVerts="0" NumberOfLines="0" NumberOfStrips="0" NumberOfPolys="1"><Points><DataArray type="Float32" NumberOfComponents="3" format="ascii">1 1 0 1 0.83483 0 0.972904 0.827279 0 0.928137 0.829111 0 0.9188 0.840894 0 0.904992 0.88459 0 0.960741 0.989809 0 0.968756 1 0 </DataArray></Points><PointData><DataArray type="Float32" Name="Velocity" NumberOfComponents="2" format="ascii">0 0 0 0 0 0 0 0 0 0 0 0 0 0 0 0 </DataArray></PointData><CellData><DataArray type="Int32" Name="ID" format="ascii">19 </DataArray><DataArray type="Float32" Name="Density" format="ascii">2500 </DataArray><DataArray type="Float32" Name="Elastic_Modulus" format="ascii">1e+10 </DataArray><DataArray type="Float32" Name="Poisson_Ratio" format="ascii">0.25 </DataArray><DataArray type="Float32" Name="Cohesion" format="ascii">1e+06 </DataArray><DataArray type="Float32" Name="Friction_Angle" format="ascii">45 </DataArray><DataArray type="Float32" Name="Stress" NumberOfComponents="3" format="ascii">0 0 0 </DataArray><DataArray type="Float32" Name="Strain" NumberOfComponents="3" format="ascii">0 0 0 </DataArray></CellData><Polys><DataArray type="Int32" Name="connectivity" format="ascii">0 1 2 3 4 5 6 7 </DataArray><DataArray type="Int32" Name="offsets" format="ascii">8</DataArray></Polys></Piece>
<Piece NumberOfPoints="4" NumberOfVerts="0" NumberOfLines="0" NumberOfStrips="0" NumberOfPolys="1"><Points><DataArray type="Float32" NumberOfComponents="3" format="ascii">0.240429 0.924881 0 0.199625 0.894216 0 0.161283 0.919346 0 0.184614 0.966267 0 </DataArray></Points><PointData><DataArray type="Float32" Name="Velocity" NumberOfComponents="2" format="ascii">0 0 0 0 0 0 0 0 </DataArray></PointData><CellData><DataArray type="Int32" Name="ID" format="ascii">20 </DataArray><DataArray type="Float32" Name="Density" format="ascii">2500 </DataArray><DataArray type="Float32" Name="Elastic_Modulus" format="ascii">1e+10 </DataArray><DataArray type="Float32" Name="Poisson_Ratio" format="ascii">0.25 </DataArray><DataArray type="Float32" Name="Cohesion" format="ascii">1e+06 </DataArray><DataArray type="Float32" Name="Friction_Angle" format="ascii">45 </DataArray><DataArray type="Float32" Name="Stress" NumberOfComponents="3" format="ascii">0 0 0 </DataArray><DataArray type="Float32" Name="Strain" NumberOfComponents="3" format="ascii">0 0 0 </DataArray></CellData><Polys><DataArray type="Int32" Name="connectivity" format="ascii">0 1 2 3 </DataArray><DataArray type="Int32" Name="offsets" format="ascii">4</DataArray></Polys></Piece>
<Piece NumberOfPoints="6" NumberOfVerts="0" NumberOfLines="0" NumberOfStrips="0" NumberOfPolys="1"><Points><DataArray type="Float32" NumberOfComponents="3" format="ascii">0.771895 0.816695 0 0.779787 0.823703 0 0.9188 0.840894 0 0.928137 0.829111 0 0.853873 0.695027 0 0.823406 0.710593 0 </DataArray></Points><PointData><DataArray type="Float32" Name="Velocity" NumberOfComponents="2" format="ascii">0 0 0 0 0 0 0 0 0 0 0 0 </DataArray></PointData><CellData><DataArray type="Int32" Name="ID" format="ascii">21 </DataArray><DataArray type="Float32" Name="Density" format="ascii">2500 </DataArray><DataArray type="Float32" Name="Elastic_Modulus" format="ascii">1e+10 </DataArray><DataArray type="Float32" Name="Poisson_Ratio" format="ascii">0.25 </DataArray><DataArray type="Float32" Name="Cohesion" format="ascii">1e+06 </DataArray><DataArray type="Float32" Name="Friction_Angle" format="ascii">45 </DataArray><DataArray type="Float32" Name="Stress" NumberOfComponents="3" format="ascii">0 0 0 </DataArray><DataArray type="Float32" Name="Strain" NumberOfComponents="3" format="ascii">0 0 0 </DataArray></CellData><Polys><DataArray type="Int32" Name="connectivity" format="ascii">0 1 2 3 4 5 </DataArray><DataArray type="Int32" Name="offsets" format="ascii">6</DataArray></Polys></Piece>
<Piece NumberOfPoints="10" NumberOfVerts="0" NumberOfLines="0" NumberOfStrips="0" NumberOfPolys="1"><Points><DataArray type="Float32" NumberOfComponents="3" format="ascii">0.510196 0.25866 0 0.53672 0.136252 0 0.535143 0.126765 0 0.529992 0.109633 0 0.516614 0.0990101 0 0.402628 0.11421 0 0.375441 0.128834 0 0.357132 0.171982 0 0.474523 0.282086 0 0.486587 0.282198 0 </DataArray></Points><PointData><DataArray type="Float32" Name="Velocity" NumberOfComponents="2" format="ascii">0 0 0 0 0 0 0 0 0 0 0 0 0 0 0 0 0 0 0 0 </DataArray></PointData><CellData><DataArray type="Int32" Name="ID" format="ascii">22 </DataArray><DataArray type="Float32" Name="Density" format="ascii">2500 </DataArray><DataArray type="Float32" Name="Elastic_Modulus" format="ascii">1e+10 </DataArray><DataArray type="Float32" Name="Poisson_Ratio" format="ascii">0.25 </DataArray><DataArray type="Float32" Name="Cohesion" format="ascii">1e+06 </DataArray><DataArray type="Float32" Name="Friction_Angle" format="ascii">45 </DataArray><DataArray type="Float32" Name="Stress" NumberOfComponents="3" format="ascii">0 0 0 </DataArray><DataArray type="Float32" Name="Strain" NumberOfComponents="3" format="ascii">0 0 0 </DataArray></CellData><Polys><DataArray type="Int32" Name="connectivity" format="ascii">0 1 2 3 4 5 6 7 8 9 </DataArray><DataArray type="Int32" Name="offsets" format="ascii">10</DataArray></Polys></Piece>