<?xml version="1.0"?><VTKFile type="PolyData" version="0.1" byte_order="LittleEndian"><PolyData>
<Piece NumberOfPoints="8" NumberOfVerts="0" NumberOfLines="0" NumberOfStrips="0" NumberOfPolys="1"><Points><DataArray type="Float32" NumberOfComponents="3" format="ascii">2.74836 1.29152 0 2.81088 1.2912 0 3.11829 1.25151 0 3.19985 1.16979 0 3.35219 0.921194 0 3.27452 0.893339 0 2.62468 0.945568 0 2.61681 0.981905 0 </DataArray></Points><PointData><DataArray type="Float32" Name="Velocity" NumberOfComponents="2" format="ascii">0 0 0 0 0 0 0 0 0 0 0 0 0 0 0 0 </DataArray></PointData><CellData><DataArray type="Int32" Name="ID" format="ascii">0 </DataArray><DataArray type="Float32" Name="Density" format="ascii">2500 </DataArray><DataArray type="Float32" Name="Elastic_Modulus" format="ascii">1e+10 </DataArray><DataArray type="Float32" Name="Poisson_Ratio" format="ascii">0.25 </DataArray><DataArray type="Float32" Name="Cohesion" format="ascii">1e+06 </DataArray><DataArray type="Float32" Name="Friction_Angle" format="ascii">45 </DataArray><DataArray type="Float32" Name="Stress" NumberOfComponents="3" format="ascii">0 0 0 </DataArray><DataArray type="Float32" Name="Strain" NumberOfComponents="3" format="ascii">0 0 0 </DataArray></CellData><Polys><DataArray type="Int32" Name="connectivity" format="ascii">0 1 2 3 4 5 6 7 </DataArray><DataArray type="Int32" Name="offsets" format="ascii">8</DataArray></Polys></Piece>
<Piece NumberOfPoints="6" NumberOfVerts="0" NumberOfLines="0" NumberOfStrips="0" NumberOfPolys="1"><Points><DataArray type="Float32" NumberOfComponents="3" format="ascii">1.86743 1.86806 0 1.78659 1.96033 0 1.92354 2.17957 0 2.17652 2.1233 0 2.23543 1.63255 0 2.15911 1.61276 0 </DataArray></Points><PointData><DataArray type="Float32" Name="Velocity" NumberOfComponents="2" format="ascii">0 0 0 0 0 0 0 0 0 0 0 0 </DataArray></PointData><CellData><DataArray type="Int32" Name="ID" format="ascii">1 </DataArray><DataArray type="Float32" Name="Density" format="ascii">2500 </DataArray><DataArray type="Float32" Name="Elastic_Modulus" format="ascii">1e+10 </DataArray><DataArray type="Float32" Name="Poisson_Ratio" format="ascii">0.25 </DataArray><DataArray type="Float32" Name="Cohesion" format="ascii">1e+06 </DataArray><DataArray type="Float32" Name="Friction_Angle" format="ascii">45 </DataArray><DataArray type="Float32" Name="Stress" NumberOfComponents="3" format="ascii">0 0 0 </DataArray><DataArray type="Float32" Name="Strain" NumberOfComponents="3" format="ascii">0 0 0 </DataArray></CellData><Polys><DataArray type="Int32" Name="connectivity" format="ascii">0 1 2 3 4 5 </DataArray><DataArray type="Int32" Name="offsets" format="ascii">6</DataArray></Polys></Piece>
<Piece NumberOfPoints="5" NumberOfVerts="0" NumberOfLines="0" NumberOfStrips="0" NumberOfPolys="1"><Points><DataArray type="Float32" NumberOfComponents="3" format="ascii">1.39412 3.795 0 1.47429 3.37617 0 1.17917 3.29181 0 0.677721 3.88831 0 1.13442 3.99047 0 </DataArray></Points><PointData><DataArray type="Float32" Name="Velocity" NumberOfComponents="2" format="ascii">0 0 0 0 0 0 0 0 0 0 </DataArray></PointData><CellData><DataArray type="Int32" Name="ID" format="ascii">2 </DataArray><DataArray type="Float32" Name="Density" format="ascii">2500 </DataArray><DataArray type="Float32" Name="Elastic_Modulus" format="ascii">1e+10 </DataArray><DataArray type="Float32" Name="Poisson_Ratio" format="ascii">0.25 </DataArray><DataArray type="Float32" Name="Cohesion" format="ascii">1e+06 </DataArray><DataArray type="Float32" Name="Friction_Angle" format="ascii">45 </DataArray><DataArray type="Float32" Name="Stress" NumberOfComponents="3" format="ascii">0 0 0 </DataArray><DataArray type="Float32" Name="Strain" NumberOfComponents="3" format="ascii">0 0 0 </DataArray></CellData><Polys><DataArray type="Int32" Name="connectivity" format="ascii">0 1 2 3 4 </DataArray><DataArray type="Int32" Name="offsets" format="ascii">5</DataArray></Polys></Piece>
<Piece NumberOfPoints="8" NumberOfVerts="0" NumberOfLines="0" NumberOfStrips="0" NumberOfPolys="1"><Points><DataArray type="Float32" NumberOfComponents="3" format="ascii">0.319391 1.27327 0 0.240856 1.42483 0 0.172846 1.58141 0 0.115681 1.74226 0 0.0717378 1.89909 0 0.516354 1.81789 0 0.520172 1.5235 0 0.348658 1.22514 0 </DataArray></Points><PointData><DataArray type="Float32" Name="Velocity" NumberOfComponents="2" format="ascii">0 0 0 0 0 0 0 0 0 0 0 0 0 0 0 0 </DataArray></PointData><CellData><DataArray type="Int32" Name="ID" format="ascii">3 </DataArray><DataArray type="Float32" Name="Density" format="ascii">2500 </DataArray><DataArray type="Float32" Name="Elastic_Modulus" format="ascii">1e+10 </DataArray><DataArray type="Float32" Name="Poisson_Ratio" format="ascii">0.25 </DataArray><DataArray type="Float32" Name="Cohesion" format="ascii">1e+06 </DataArray><DataArray type="Float32" Name="Friction_Angle" format="ascii">45 </DataArray><DataArray type="Float32" Name="Stress" NumberOfComponents="3" format="ascii">0 0 0 </DataArray><DataArray type="Float32" Name="Strain" NumberOfComponents="3" format="ascii">0 0 0 </DataArray></CellData><Polys><DataArray type="Int32" Name="connectivity" format="ascii">0 1 2 3 4 5 6 7 </DataArray><DataArray type="Int32" Name="offsets" format="ascii">8</DataArray></Polys></Piece>
<Piece NumberOfPoints="6" NumberOfVerts="0" NumberOfLines="0" NumberOfStrips="0" NumberOfPolys="1"><Points><DataArray type="Float32" NumberOfComponents="3" format="ascii">2.53661 4.12331 0 3.03282 4.26627 0 3.10084 3.96273 0 3.0563 3.73744 0 2.4484 3.90208 0 2.40928 3.99324 0 </DataArray></Points><PointData><DataArray type="Float32" Name="Velocity" NumberOfComponents="2" format="ascii">0 0 0 0 0 0 0 0 0 0 0 0 </DataArray></PointData><CellData><DataArray type="Int32" Name="ID" format="ascii">4 </DataArray><DataArray type="Float32" Name="Density" format="ascii">2500 </DataArray><DataArray type="Float32" Name="Elastic_Modulus" format="ascii">1e+10 </DataArray><DataArray type="Float32" Name="Poisson_Ratio" format="ascii">0.25 </DataArray><DataArray type="Float32" Name="Cohesion" format="ascii">1e+06 </DataArray><DataArray type="Float32" Name="Friction_Angle" format="ascii">45 </DataArray><DataArray type="Float32" Name="Stress" NumberOfComponents="3" format="ascii">0 0 0 </DataArray><DataArray type="Float32" Name="Strain" NumberOfComponents="3" format="ascii">0 0 0 </DataArray></CellData><Polys><DataArray type="Int32" Name="connectivity" format="ascii">0 1 2 3 4 5 </DataArray><DataArray type="Int32" Name="offsets" format="ascii">6</DataArray></Polys></Piece>
<Piece NumberOfPoints="6" NumberOfVerts="0" NumberOfLines="0" NumberOfStrips="0" NumberOfPolys="1"><Points><DataArray type="Float32" NumberOfComponents="3" format="ascii">3.24858 1.45107 0 3.09527 1.60383 0 3.09353 1.64338 0 3.23779 1.80615 0 3.40961 1.65749 0 3.42446 1.60346 0 </DataArray></Points><PointData><DataArray type="Float32" Name="Velocity" NumberOfComponents="2" format="ascii">0 0 0 0 0 0 0 0 0 0 0 0 </DataArray></PointData><CellData><DataArray type="Int32" Name="ID" format="ascii">5 </DataArray><DataArray type="Float32" Name="Density" format="ascii">2500 </DataArray><DataArray type="Float32" Name="Elastic_Modulus" format="ascii">1e+10 </DataArray><DataArray type="Float32" Name="Poisson_Ratio" format="ascii">0.25 </DataArray><DataArray type="Float32" Name="Cohesion" format="ascii">1e+06 </DataArray><DataArray type="Float32" Name="Friction_Angle" format="ascii">45 </DataArray><DataArray type="Float32" Name="Stress" NumberOfComponents="3" format="ascii">0 0 0 </DataArray><DataArray type="Float32" Name="Strain" NumberOfComponents="3" format="ascii">0 0 0 </DataArray></CellData><Polys><DataArray type="Int32" Name="connectivity" format="ascii">0 1 2 3 4 5 </DataArray><DataArray type="Int32" Name="offsets" format="ascii">6</DataArray></Polys></Piece>
<Piece NumberOfPoints="7" NumberOfVerts="0" NumberOfLines="0" NumberOfStrips="0" NumberOfPolys="1"><Points><DataArray type="Float32" NumberOfComponents="3" format="ascii">2.4484 3.90208 0 2.44826 3.78326 0 2.40329 3.59487 0 1.70114 3.2708 0 2.09123 3.99906 0 2.28385 4.03905 0 2.40928 3.99324 0 </DataArray></Points><PointData><DataArray type="Float32" Name="Velocity" NumberOfComponents="2" format="ascii">0 0 0 0 0 0 0 0 0 0 0 0 0 0 </DataArray></PointData><CellData><DataArray type="Int32" Name="ID" format="ascii">6 </DataArray><DataArray type="Float32" Name="Density" format="ascii">2500 </DataArray><DataArray type="Float32" Name="Elastic_Modulus" format="ascii">1e+10 </DataArray><DataArray type="Float32" Name="Poisson_Ratio" format="ascii">0.25 </DataArray><DataArray type="Float32" Name="Cohesion" format="ascii">1e+06 </DataArray><DataArray type="Float32" Name="Friction_Angle" format="ascii">45 </DataArray><DataArray type="Float32" Name="Stress" NumberOfComponents="3" format="ascii">0 0 0 </DataArray><DataArray type="Float32" Name="Strain" NumberOfComponents="3" format="ascii">0 0 0 </DataArray></CellData><Polys><DataArray type="Int32" Name="connectivity" format="ascii">0 1 2 3 4 5 6 </DataArray><DataArray type="Int32" Name="offsets" format="ascii">7</DataArray></Polys></Piece>
<Piece NumberOfPoints="7" NumberOfVerts="0" NumberOfLines="0" NumberOfStrips="0" NumberOfPolys="1"><Points><DataArray type="Float32" NumberOfComponents="3" format="ascii">1.76316 3.14847 0 1.8811 2.76854 0 1.35926 2.62411 0 1.32335 2.65939 0 1.31916 2.74966 0 1.63698 3.24601 0 1.66911 3.24001 0 </DataArray></Points><PointData><DataArray type="Float32" Name="Velocity" NumberOfComponents="2" format="ascii">0 0 0 0 0 0 0 0 0 0 0 0 0 0 </DataArray></PointData><CellData><DataArray type="Int32" Name="ID" format="ascii">7 </DataArray><DataArray type="Float32" Name="Density" format="ascii">2500 </DataArray><DataArray type="Float32" Name="Elastic_Modulus" format="ascii">1e+10 </DataArray><DataArray type="Float32" Name="Poisson_Ratio" format="ascii">0.25 </DataArray><DataArray type="Float32" Name="Cohesion" format="ascii">1e+06 </DataArray><DataArray type="Float32" Name="Friction_Angle" format="ascii">45 </DataArray><DataArray type="Float32" Name="Stress" NumberOfComponents="3" format="ascii">0 0 0 </DataArray><DataArray type="Float32" Name="Strain" NumberOfComponents="3" format="ascii">0 0 0 </DataArray></CellData><Polys><DataArray type="Int32" Name="connectivity" format="ascii">0 1 2 3 4 5 6 </DataArray><DataArray type="Int32" Name="offsets" format="ascii">7</DataArray></Polys></Piece>
<Piece NumberOfPoints="4" NumberOfVerts="0" NumberOfLines="0" NumberOfStrips="0" NumberOfPolys="1"><Points><DataArray type="Float32" NumberOfComponents="3" format="ascii">1.11674 2.91202 0 0.950558 2.75927 0 0.784607 3.12578 0 0.97034 3.1343 0 </DataArray></Points><PointData><DataArray type="Float32" Name="Velocity" NumberOfComponents="2" format="ascii">0 0 0 0 0 0 0 0 </DataArray></PointData><CellData><DataArray type="Int32" Name="ID" format="ascii">8 </DataArray><DataArray type="Float32" Name="Density" format="ascii">2500 </DataArray><DataArray type="Float32" Name="Elastic_Modulus" format="ascii">1e+10 </DataArray><DataArray type="Float32" Name="Poisson_Ratio" format="ascii">0.25 </DataArray><DataArray type="Float32" Name="Cohesion" format="ascii">1e+06 </DataArray><DataArray type="Float32" Name="Friction_Angle" format="ascii">45 </DataArray><DataArray type="Float32" Name="Stress" NumberOfComponents="3" format="ascii">0 0 0 </DataArray><DataArray type="Float32" Name="Strain" NumberOfComponents="3" format="ascii">0 0 0 </DataArray></CellData><Polys><DataArray type="Int32" Name="connectivity" format="ascii">0 1 2 3 </DataArray><DataArray type="Int32" Name="offsets" format="ascii">4</DataArray></Polys></Piece>
<Piece NumberOfPoints="5" NumberOfVerts="0" NumberOfLines="0" NumberOfStrips="0" NumberOfPolys="1"><Points><DataArray type="Float32" NumberOfComponents="3" format="ascii">2.03949 4.66374 0 2.65583 4.70732 0 2.53661 4.12331 0 2.40928 3.99324 0 2.28385 4.03905 0 </DataArray></Points><PointData><DataArray type="Float32" Name="Velocity" NumberOfComponents="2" format="ascii">0 0 0 0 0 0 0 0 0 0 </DataArray></PointData><CellData><DataArray type="Int32" Name="ID" format="ascii">9 </DataArray><DataArray type="Float32" Name="Density" format="ascii">2500 </DataArray><DataArray type="Float32" Name="Elastic_Modulus" format="ascii">1e+10 </DataArray><DataArray type="Float32" Name="Poisson_Ratio" format="ascii">0.25 </DataArray><DataArray type="Float32" Name="Cohesion" format="ascii">1e+06 </DataArray><DataArray type="Float32" Name="Friction_Angle" format="ascii">45 </DataArray><DataArray type="Float32" Name="Stress" NumberOfComponents="3" format="ascii">0 0 0 </DataArray><DataArray type="Float32" Name="Strain" NumberOfComponents="3" format="ascii">0 0 0 </DataArray></CellData><Polys><DataArray type="Int32" Name="connectivity" format="ascii">0 1 2 3 4 </DataArray><DataArray type="Int32" Name="offsets" format="ascii">5</DataArray></Polys></Piece>
<Piece NumberOfPoints="7" NumberOfVerts="0" NumberOfLines="0" NumberOfStrips="0" NumberOfPolys="1"><Points><DataArray type="Float32" NumberOfComponents="3" format="ascii">1.32931 1.33177 0 1.39354 1.38933 0 1.68335 1.45234 0 2.06264 1.43332 0 2.03444 1.09373 0 1.78462 0.85941 0 1.69683 0.888253 0 </DataArray></Points><PointData><DataArray type="Float32" Name="Velocity" NumberOfComponents="2" format="ascii">0 0 0 0 0 0 0 0 0 0 0 0 0 0 </DataArray></PointData><CellData><DataArray type="Int32" Name="ID" format="ascii">10 </DataArray><DataArray type="Float32" Name="Density" format="ascii">2500 </DataArray><DataArray type="Float32" Name="Elastic_Modulus" format="ascii">1e+10 </DataArray><DataArray type="Float32" Name="Poisson_Ratio" format="ascii">0.25 </DataArray><DataArray type="Float32" Name="Cohesion" format="ascii">1e+06 </DataArray><DataArray type="Float32" Name="Friction_Angle" format="ascii">45 </DataArray><DataArray type="Float32" Name="Stress" NumberOfComponents="3" format="ascii">0 0 0 </DataArray><DataArray type="Float32" Name="Strain" NumberOfComponents="3" format="ascii">0 0 0 </DataArray></CellData><Polys><DataArray type="Int32" Name="connectivity" format="ascii">0 1 2 3 4 5 6 </DataArray><DataArray type="Int32" Name="offsets" format="ascii">7</DataArray></Polys></Piece>
<Piece NumberOfPoints="6" NumberOfVerts="0" NumberOfLines="0" NumberOfStrips="0" NumberOfPolys="1"><Points><DataArray type="Float32" NumberOfComponents="3" format="ascii">2.75489 1.69989 0 3.09353 1.64338 0 3.09527 1.60383 0 2.81088 1.2912 0 2.74836 1.29152 0 2.63528 1.53471 0 </DataArray></Points><PointData><DataArray type="Float32" Name="Velocity" NumberOfComponents="2" format="ascii">0 0 0 0 0 0 0 0 0 0 0 0 </DataArray></PointData><CellData><DataArray type="Int32" Name="ID" format="ascii">11 </DataArray><DataArray type="Float32" Name="Density" format="ascii">2500 </DataArray><DataArray type="Float32" Name="Elastic_Modulus" format="ascii">1e+10 </DataArray><DataArray type="Float32" Name="Poisson_Ratio" format="ascii">0.25 </DataArray><DataArray type="Float32" Name="Cohesion" format="ascii">1e+06 </DataArray><DataArray type="Float32" Name="Friction_Angle" format="ascii">45 </DataArray><DataArray type="Float32" Name="Stress" NumberOfComponents="3" format="ascii">0 0 0 </DataArray><DataArray type="Float32" Name="Strain" NumberOfComponents="3" format="ascii">0 0 0 </DataArray></CellData><Polys><DataArray type="Int32" Name="connectivity" format="ascii">0 1 2 3 4 5 </DataArray><DataArray type="Int32" Name="offsets" format="ascii">6</DataArray></Polys></Piece>
<Piece NumberOfPoints="5" NumberOfVerts="0" NumberOfLines="0" NumberOfStrips="0" NumberOfPolys="1"><Points><DataArray type="Float32" NumberOfComponents="3" format="ascii">0.411899 2.16668 0 0.499924 2.32348 0 0.503611 2.32385 0 0.831035 2.00028 0 0.54315 1.85539 0 </DataArray></Points><PointData><DataArray type="Float32" Name="Velocity" NumberOfComponents="2" format="ascii">0 0 0 0 0 0 0 0 0 0 </DataArray></PointData><CellData><DataArray type="Int32" Name="ID" format="ascii">12 </DataArray><DataArray type="Float32" Name="Density" format="ascii">2500 </DataArray><DataArray type="Float32" Name="Elastic_Modulus" format="ascii">1e+10 </DataArray><DataArray type="Float32" Name="Poisson_Ratio" format="ascii">0.25 </DataArray><DataArray type="Float32" Name="Cohesion" format="ascii">1e+06 </DataArray><DataArray type="Float32" Name="Friction_Angle" format="ascii">45 </DataArray><DataArray type="Float32" Name="Stress" NumberOfComponents="3" format="ascii">0 0 0 </DataArray><DataArray type="Float32" Name="Strain" NumberOfComponents="3" format="ascii">0 0 0 </DataArray></CellData><Polys><DataArray type="Int32" Name="connectivity" format="ascii">0 1 2 3 4 </DataArray><DataArray type="Int32" Name="offsets" format="ascii">5</DataArray></Polys></Piece>
<Piece NumberOfPoints="6" NumberOfVerts="0" NumberOfLines="0" NumberOfStrips="0" NumberOfPolys="1"><Points><DataArray type="Float32" NumberOfComponents="3" format="ascii">2.98014 2.04513 0 2.96865 2.0496 0 2.93884 2.29487 0 2.9747 2.41218 0 3.59199 2.48186 0 3.59482 2.47684 0 </DataArray></Points><PointData><DataArray type="Float32" Name="Velocity" NumberOfComponents="2" format="ascii">0 0 0 0 0 0 0 0 0 0 0 0 </DataArray></PointData><CellData><DataArray type="Int32" Name="ID" format="ascii">13 </DataArray><DataArray type="Float32" Name="Density" format="ascii">2500 </DataArray><DataArray type="Float32" Name="Elastic_Modulus" format="ascii">1e+10 </DataArray><DataArray type="Float32" Name="Poisson_Ratio" format="ascii">0.25 </DataArray><DataArray type="Float32" Name="Cohesion" format="ascii">1e+06 </DataArray><DataArray type="Float32" Name="Friction_Angle" format="ascii">45 </DataArray><DataArray type="Float32" Name="Stress" NumberOfComponents="3" format="ascii">0 0 0 </DataArray><DataArray type="Float32" Name="Strain" NumberOfComponents="3" format="ascii">0 0 0 </DataArray></CellData><Polys><DataArray type="Int32" Name="connectivity" format="ascii">0 1 2 3 4 5 </DataArray><DataArray type="Int32" Name="offsets" format="ascii">6</DataArray></Polys></Piece>
<Piece NumberOfPoints="8" NumberOfVerts="0" NumberOfLines="0" NumberOfStrips="0" NumberOfPolys="1"><Points><DataArray type="Float32" NumberOfComponents="3" format="ascii">4.00913 4.49056 0 4.14155 4.38282 0 4.26631 4.26631 0 4.38282 4.14155 0 4.49056 4.00913 0 4.51019 3.98132 0 4.22888 3.97772 0 3.92676 4.5487 0 </DataArray></Points><PointData><DataArray type="Float32" Name="Velocity" NumberOfComponents="2" format="ascii">0 0 0 0 0 0 0 0 0 0 0 0 0 0 0 0 </DataArray></PointData><CellData><DataArray type="Int32" Name="ID" format="ascii">14 </DataArray><DataArray type="Float32" Name="Density" format="ascii">2500 </DataArray><DataArray type="Float32" Name="Elastic_Modulus" format="ascii">1e+10 </DataArray><DataArray type="Float32" Name="Poisson_Ratio" format="ascii">0.25 </DataArray><DataArray type="Float32" Name="Cohesion" format="ascii">1e+06 </DataArray><DataArray type="Float32" Name="Friction_Angle" format="ascii">45 </DataArray><DataArray type="Float32" Name="Stress" NumberOfComponents="3" format="ascii">0 0 0 </DataArray><DataArray type="Float32" Name="Strain" NumberOfComponents="3" format="ascii">0 0 0 </DataArray></CellData><Polys><DataArray type="Int32" Name="connectivity" format="ascii">0 1 2 3 4 5 6 7 </DataArray><DataArray type="Int32" Name="offsets" format="ascii">8</DataArray></Polys></Piece>
<Piece NumberOfPoints="8" NumberOfVerts="0" NumberOfLines="0" NumberOfStrips="0" NumberOfPolys="1"><Points><DataArray type="Float32" NumberOfComponents="3" format="ascii">2.01197 0.570715 0 1.87611 0.643793 0 1.78462 0.85941 0 2.03444 1.09373 0 2.61681 0.981905 0 2.62468 0.945568 0 2.64129 0.542187 0 2.58156 0.494762 0 </DataArray></Points><PointData><DataArray type="Float32" Name="Velocity" NumberOfComponents="2" format="ascii">0 0 0 0 0 0 0 0 0 0 0 0 0 0 0 0 </DataArray></PointData><CellData><DataArray type="Int32" Name="ID" format="ascii">15 </DataArray><DataArray type="Float32" Name="Density" format="ascii">2500 </DataArray><DataArray type="Float32" Name="Elastic_Modulus" format="ascii">1e+10 </DataArray><DataArray type="Float32" Name="Poisson_Ratio" format="ascii">0.25 </DataArray><DataArray type="Float32" Name="Cohesion" format="ascii">1e+06 </DataArray><DataArray type="Float32" Name="Friction_Angle" format="ascii">45 </DataArray><DataArray type="Float32" Name="Stress" NumberOfComponents="3" format="ascii">0 0 0 </DataArray><DataArray type="Float32" Name="Strain" NumberOfComponents="3" format="ascii">0 0 0 </DataArray></CellData><Polys><DataArray type="Int32" Name="connectivity" format="ascii">0 1 2 3 4 5 6 7 </DataArray><DataArray type="Int32" Name="offsets" format="ascii">8</DataArray></Polys></Piece>
<Piece NumberOfPoints="10" NumberOfVerts="0" NumberOfLines="0" NumberOfStrips="0" NumberOfPolys="1"><Points><DataArray type="Float32" NumberOfComponents="3" format="ascii">4.38059 2.87857 0 4.07606 2.19447 0 4.03509 2.17557 0 3.67204 2.34611 0 3.59482 2.47684 0 3.59199 2.48186 0 3.58806 2.68225 0 3.65502 2.74925 0 4.3312 2.98794 0 4.36199 2.93422 0 </DataArray></Points><PointData><DataArray type="Float32" Name="Velocity" NumberOfComponents="2" format="ascii">0 0 0 0 0 0 0 0 0 0 0 0 0 0 0 0 0 0 0 0 </DataArray></PointData><CellData><DataArray type="Int32" Name="ID" format="ascii">16 </DataArray><DataArray type="Float32" Name="Density" format="ascii">2500 </DataArray><DataArray type="Float32" Name="Elastic_Modulus" format="ascii">1e+10 </DataArray><DataArray type="Float32" Name="Poisson_Ratio" format="ascii">0.25 </DataArray><DataArray type="Float32" Name="Cohesion" format="ascii">1e+06 </DataArray><DataArray type="Float32" Name="Friction_Angle" format="ascii">45 </DataArray><DataArray type="Float32" Name="Stress" NumberOfComponents="3" format="ascii">0 0 0 </DataArray><DataArray type="Float32" Name="Strain" NumberOfComponents="3" format="ascii">0 0 0 </DataArray></CellData><Polys><DataArray type="Int32" Name="connectivity" format="ascii">0 1 2 3 4 5 6 7 8 9 </DataArray><DataArray type="Int32" Name="offsets" format="ascii">10</DataArray></Polys></Piece>
<Piece NumberOfPoints="4" NumberOfVerts="0" NumberOfLines="0" NumberOfStrips="0" NumberOfPolys="1"><Points><DataArray type="Float32" NumberOfComponents="3" format="ascii">0.503611 2.32385 0 0.847413 2.44009 0 0.913357 2.03292 0 0.831035 2.00028 0 </DataArray></Points><PointData><DataArray type="Float32" Name="Velocity" NumberOfComponents="2" format="ascii">0 0 0 0 0 0 0 0 </DataArray></PointData><CellData><DataArray type="Int32" Name="ID" format="ascii">17 </DataArray><DataArray type="Float32" Name="Density" format="ascii">2500 </DataArray><DataArray type="Float32" Name="Elastic_Modulus" format="ascii">1e+10 </DataArray><DataArray type="Float32" Name="Poisson_Ratio" format="ascii">0.25 </DataArray><DataArray type="Float32" Name="Cohesion" format="ascii">1e+06 </DataArray><DataArray type="Float32" Name="Friction_Angle" format="ascii">45 </DataArray><DataArray type="Float32" Name="Stress" NumberOfComponents="3" format="ascii">0 0 0 </DataArray><DataArray type="Float32" Name="Strain" NumberOfComponents="3" format="ascii">0 0 0 </DataArray></CellData><Polys><DataArray type="Int32" Name="connectivity" format="ascii">0 1 2 3 </DataArray><DataArray type="Int32" Name="offsets" format="ascii">4</DataArray></Polys></Piece>
<Piece NumberOfPoints="9" NumberOfVerts="0" NumberOfLines="0" NumberOfStrips="0" NumberOfPolys="1"><Points><DataArray type="Float32" NumberOfComponents="3" format="ascii">0.0116494 2.7542 0 0.0348938 2.92332 0 0.0696248 3.09045 0 0.115681 3.25483 0 0.172846 3.41568 0 0.215211 3.51321 0 0.437082 2.66426 0 0.317762 2.60828 0 0.000692414 2.59402 0 </DataArray></Points><PointData><DataArray type="Float32" Name="Velocity" NumberOfComponents="2" format="ascii">0 0 0 0 0 0 0 0 0 0 0 0 0 0 0 0 0 0 </DataArray></PointData><CellData><DataArray type="Int32" Name="ID" format="ascii">18 </DataArray><DataArray type="Float32" Name="Density" format="ascii">2500 </DataArray><DataArray type="Float32" Name="Elastic_Modulus" format="ascii">1e+10 </DataArray><DataArray type="Float32" Name="Poisson_Ratio" format="ascii">0.25 </DataArray><DataArray type="Float32" Name="Cohesion" format="ascii">1e+06 </DataArray><DataArray type="Float32" Name="Friction_Angle" format="ascii">45 </DataArray><DataArray type="Float32" Name="Stress" NumberOfComponents="3" format="ascii">0 0 0 </DataArray><DataArray type="Float32" Name="Strain" NumberOfComponents="3" format="ascii">0 0 0 </DataArray></CellData><Polys><DataArray type="Int32" Name="connectivity" format="ascii">0 1 2 3 4 5 6 7 8 </DataArray><DataArray type="Int32" Name="offsets" format="ascii">9</DataArray></Polys></Piece>
<Piece NumberOfPoints="5" NumberOfVerts="0" NumberOfLines="0" NumberOfStrips="0" NumberOfPolys="1"><Points><DataArray type="Float32" NumberOfComponents="3" format="ascii">3.50478 2.15038 0 3.14914 1.97462 0 2.98014 2.04513 0 3.59482 2.47684 0 3.67204 2.34611 0 </DataArray></Points><PointData><DataArray type="Float32" Name="Velocity" NumberOfComponents="2" format="ascii">0 0 0 0 0 0 0 0 0 0 </DataArray></PointData><CellData><DataArray type="Int32" Name="ID" format="ascii">19 </DataArray><DataArray type="Float32" Name="Density" format="ascii">2500 </DataArray><DataArray type="Float32" Name="Elastic_Modulus" format="ascii">1e+10 </DataArray><DataArray type="Float32" Name="Poisson_Ratio" format="ascii">0.25 </DataArray><DataArray type="Float32" Name="Cohesion" format="ascii">1e+06 </DataArray><DataArray type="Float32" Name="Friction_Angle" format="ascii">45 </DataArray><DataArray type="Float32" Name="Stress" NumberOfComponents="3" format="ascii">0 0 0 </DataArray><DataArray type="Float32" Name="Strain" NumberOfComponents="3" format="ascii">0 0 0 </DataArray></CellData><Polys><DataArray type="Int32" Name="connectivity" format="ascii">0 1 2 3 4 </DataArray><DataArray type="Int32" Name="offsets" format="ascii">5</DataArray></Polys></Piece>
<Piece NumberOfPoints="5" NumberOfVerts="0" NumberOfLines="0" NumberOfStrips="0" NumberOfPolys="1"><Points><DataArray type="Float32" NumberOfComponents="3" format="ascii">4.3312 2.98794 0 3.65502 2.74925 0 3.71349 3.19191 0 4.27273 3.33905 0 4.29303 3.32594 0 </DataArray></Points><PointData><DataArray type="Float32" Name="Velocity" NumberOfComponents="2" format="ascii">0 0 0 0 0 0 0 0 0 0 </DataArray></PointData><CellData><DataArray type="Int32" Name="ID" format="ascii">20 </DataArray><DataArray type="Float32" Name="Density" format="ascii">2500 </DataArray><DataArray type="Float32" Name="Elastic_Modulus" format="ascii">1e+10 </DataArray><DataArray type="Float32" Name="Poisson_Ratio" format="ascii">0.25 </DataArray><DataArray type="Float32" Name="Cohesion" format="ascii">1e+06 </DataArray><DataArray type="Float32" Name="Friction_Angle" format="ascii">45 </DataArray><DataArray type="Float32" Name="Stress" NumberOfComponents="3" format="ascii">0 0 0 </DataArray><DataArray type="Float32" Name="Strain" NumberOfComponents="3" format="ascii">0 0 0 </DataArray></CellData><Polys><DataArray type="Int32" Name="connectivity" format="ascii">0 1 2 3 4 </DataArray><DataArray type="Int32" Name="offsets" format="ascii">5</DataArray></Polys></Piece>
<Piece NumberOfPoints="6" NumberOfVerts="0" NumberOfLines="0" NumberOfStrips="0" NumberOfPolys="1"><Points><DataArray type="Float32" NumberOfComponents="3" format="ascii">3.35219 0.921194 0 3.19985 1.16979 0 3.67249 1.43824 0 3.70056 1.4268 0 3.66587 0.859158 0 3.54838 0.816027 0 </DataArray></Points><PointData><DataArray type="Float32" Name="Velocity" NumberOfComponents="2" format="ascii">0 0 0 0 0 0 0 0 0 0 0 0 </DataArray></PointData><CellData><DataArray type="Int32" Name="ID" format="ascii">21 </DataArray><DataArray type="Float32" Name="Density" format="ascii">2500 </DataArray><DataArray type="Float32" Name="Elastic_Modulus" format="ascii">1e+10 </DataArray><DataArray type="Float32" Name="Poisson_Ratio" format="ascii">0.25 </DataArray><DataArray type="Float32" Name="Cohesion" format="ascii">1e+06 </DataArray><DataArray type="Float32" Name="Friction_Angle" format="ascii">45 </DataArray><DataArray type="Float32" Name="Stress" NumberOfComponents="3" format="ascii">0 0 0 </DataArray><DataArray type="Float32" Name="Strain" NumberOfComponents="3" format="ascii">0 0 0 </DataArray></CellData><Polys><DataArray type="Int32" Name="connectivity" format="ascii">0 1 2 3 4 5 </DataArray><DataArray type="Int32" Name="offsets" format="ascii">6</DataArray></Polys></Piece>
<Piece NumberOfPoints="8" NumberOfVerts="0" NumberOfLines="0" NumberOfStrips="0" NumberOfPolys="1"><Points><DataArray type="Float32" NumberOfComponents="3" format="ascii">1.87611 0.643793 0 1.73855 0.40533 0 1.44513 0.23204 0 1.42483 0.240856 0 1.35179 0.278705 0 1.41645 0.720847 0 1.69683 0.888253 0 1.78462 0.85941 0 </DataArray></Points><PointData><DataArray type="Float32" Name="Velocity" NumberOfComponents="2" format="ascii">0 0 0 0 0 0 0 0 0 0 0 0 0 0 0 0 </DataArray></PointData><CellData><DataArray type="Int32" Name="ID" format="ascii">22 </DataArray><DataArray type="Float32" Name="Density" format="ascii">2500 </DataArray><DataArray type="Float32" Name="Elastic_Modulus" format="ascii">1e+10 </DataArray><DataArray type="Float32" Name="Poisson_Ratio" format="ascii">0.25 </DataArray><DataArray type="Float32" Name="Cohesion" format="ascii">1e+06 </DataArray><DataArray type="Float32" Name="Friction_Angle" format="ascii">45 </DataArray><DataArray type="Float32" Name="Stress" NumberOfComponents="3" format="ascii">0 0 0 </DataArray><DataArray type="Float32" Name="Strain" NumberOfComponents="3" format="ascii">0 0 0 </DataArray></CellData><Polys><DataArray type="Int32" Name="connectivity" format="ascii">0 1 2 3 4 5 6 7 </DataArray><DataArray type="Int32" Name="offsets" format="ascii">8</DataArray></Polys></Piece>